# Time        Current        Error           Background  
0.20202       0.59645       0.049104          0.22843  
0.40404       0.98018       0.056174          0.16592  
0.606061      0.90805       0.048060          0.20787  
0.808081      0.57372       0.043970          0.19996 
1.0101        0.04680       0.062735          0.18387   
1.21212      -0.40784       0.059054          0.11693   
1.41414      -0.71141       0.025983          0.14476  
1.61616      -0.75434       0.031580          0.07771   
1.81818      -0.49922       0.055977          0.13190   
2.0202        0.02861       0.041060          0.03491   
2.22222       0.33590       ........          .....
.......      ........
